PROCAR lm decomposed
# of k-points: 1         # of bands: 2        # of ions: 1

k-point    1 :    0.00000000 0.00000000 0.00000000     weight = 1.00000000

band   1 # energy   1.00000000 # occ.  1.00000000
ion      s      p      d    tot
  1  0.100  0.100  0.100  0.300
tot  0.100  0.100  0.100  0.300

band   2 # energy   2.00000000 # occ.  0.00000000
ion      s      p      d    tot
  1  0.200  0.200  0.200  0.600
tot  0.200  0.200  0.200  0.600
