 vasp.6.4.0 14Feb23 (build Mar 08 2023 10:09:52) complex                        
  
 executed on             LinuxIFC date 2025.08.21  17:03:49
 running   80 mpi-ranks, on    1 nodes
 distrk:  each k-point on   80 cores,    1 groups
 distr:  one band on NCORE=   1 cores,   80 groups


--------------------------------------------------------------------------------------------------------


 INCAR:
   SYSTEM = calc_md_test
   PREC = Accurate
   ALGO = Fast
   LREAL = .FALSE.
   LWAVE = .FALSE.
   LORBIT = 0
   ENCUT = 400
   SMASS = -3
   NSW = 10
   NBLOCK = 1
   POTIM = 1.0
   ISYM = 0
   LCHARG = .FALSE.
   LVTOT = .FALSE.

 POTCAR:    PAW_PBE Al 04Jan2001                  
 -----------------------------------------------------------------------------
|                                                                             |
|           W    W    AA    RRRRR   N    N  II  N    N   GGGG   !!!           |
|           W    W   A  A   R    R  NN   N  II  NN   N  G    G  !!!           |
|           W    W  A    A  R    R  N N  N  II  N N  N  G       !!!           |
|           W WW W  AAAAAA  RRRRR   N  N N  II  N  N N  G  GGG   !            |
|           WW  WW  A    A  R   R   N   NN  II  N   NN  G    G                |
|           W    W  A    A  R    R  N    N  II  N    N   GGGG   !!!           |
|                                                                             |
|     For optimal performance we recommend to set                             |
|       NCORE = 2 up to number-of-cores-per-socket                            |
|     NCORE specifies how many cores store one orbital (NPAR=cpu/NCORE).      |
|     This setting can greatly improve the performance of VASP for DFT.       |
|     The default, NCORE=1 might be grossly inefficient on modern             |
|     multi-core architectures or massively parallel machines. Do your        |
|     own testing! More info at https://www.vasp.at/wiki/index.php/NCORE      |
|     Unfortunately you need to use the default for GW and RPA                |
|     calculations (for HF NCORE is supported but not extensively tested      |
|     yet).                                                                   |
|                                                                             |
 -----------------------------------------------------------------------------

 POTCAR:    PAW_PBE Al 04Jan2001                  
   SHA256 =  17880443556af62b473fe41b62a467bd001ad55d2cabe504a3f22e34d4e9db96 Al/POTCAR             
   COPYR  = (c) Copyright 04Jan2001 Georg Kresse                                                    
   COPYR  = This file is part of the software VASP. Any use, copying, and all other rights are regul
   COPYR  = If you do not have a valid VASP license, you may not use, copy or distribute this file. 
   VRHFIN =Al: s2p1                                                                                 
   LEXCH  = PE                                                                                      
   EATOM  =    53.5387 eV,    3.9350 Ry                                                             
                                                                                                    
   TITEL  = PAW_PBE Al 04Jan2001                                                                    
   LULTRA =        F    use ultrasoft PP ?                                                          
   IUNSCR =        1    unscreen: 0-lin 1-nonlin 2-no                                               
   RPACOR =    1.500    partial core radius                                                         
   POMASS =   26.981; ZVAL   =    3.000    mass and valenz                                          
   RCORE  =    1.900    outmost cutoff radius                                                       
   RWIGS  =    2.650; RWIGS  =    1.402    wigner-seitz radius (au A)                               
   ENMAX  =  240.300; ENMIN  =  180.225 eV                                                          
   ICORE  =        2    local potential                                                             
   LCOR   =        T    correct aug charges                                                         
   LPAW   =        T    paw PP                                                                      
   EAUG   =  291.052                                                                                
   DEXC   =    0.000                                                                                
   RMAX   =    1.939    core radius for proj-oper                                                   
   RAUG   =    1.300    factor for augmentation sphere                                              
   RDEP   =    1.966    radius for radial grids                                                     
   RDEPT  =    1.856    core radius for aug-charge                                                  
                                                                                                    
   Atomic configuration                                                                             
    6 entries                                                                                       
     n  l   j            E        occ.                                                              
     1  0  0.50     -1511.1048   2.0000                                                             
     2  0  0.50      -108.1629   2.0000                                                             
     2  1  1.50       -69.6402   6.0000                                                             
     3  0  0.50        -7.7528   2.0000                                                             
     3  1  1.50        -2.7121   1.0000                                                             
     3  2  2.50        -2.7212   0.0000                                                             
   Description                                                                                      
     l       E           TYP  RCUT    TYP  RCUT                                                     
     0     -7.7528455     23  1.900                                                                 
     0     -3.3096929     23  1.900                                                                 
     1     -2.7120682     23  1.900                                                                 
     1     13.6058260     23  1.900                                                                 
     2     -2.7211652      7  1.900                                                                 
  local pseudopotential read in
  partial core-charges read in
  partial kinetic energy density read in
  atomic valenz-charges read in
  non local Contribution for L=           0  read in
    real space projection operators read in
  non local Contribution for L=           0  read in
    real space projection operators read in
  non local Contribution for L=           1  read in
    real space projection operators read in
  non local Contribution for L=           1  read in
    real space projection operators read in
    PAW grid and wavefunctions read in
 
   number of l-projection  operators is LMAX  =           4
   number of lm-projection operators is LMMAX =           8
 
  PAW_PBE Al 04Jan2001                  :
 energy of atom  1       EATOM=  -53.5387
 kinetic energy error for atom=    0.0005 (will be added to EATOM!!)
 
 
 POSCAR: Poscar file generated with pyiron
  positions in cartesian coordinates
  No initial velocities read in
 exchange correlation table for  LEXCH =        8
   RHO(1)=    0.500       N(1)  =     2000
   RHO(2)=  100.500       N(2)  =     4000
 


--------------------------------------------------------------------------------------------------------


 ion  position               nearest neighbor table
   1  0.000  0.000  0.000-   2 2.86   3 2.86   4 2.86   2 2.86   3 2.86   2 2.86   4 2.86   2 2.86
                             3 2.86   4 2.86   3 2.86   4 2.86
   2  0.000  0.500  0.500-   1 2.86   3 2.86   4 2.86   1 2.86   4 2.86   1 2.86   3 2.86   1 2.86
                             3 2.86   4 2.86   4 2.86   3 2.86
   3  0.500  0.000  0.500-   1 2.86   2 2.86   4 2.86   1 2.86   4 2.86   2 2.86   4 2.86   4 2.86
                             1 2.86   2 2.86   1 2.86   2 2.86
   4  0.500  0.500  0.000-   1 2.86   2 2.86   3 2.86   2 2.86   3 2.86   1 2.86   3 2.86   3 2.86
                             1 2.86   2 2.86   2 2.86   1 2.86
 

IMPORTANT INFORMATION: All symmetrisations will be switched off!
NOSYMM: (Re-)initialisation of all symmetry stuff for point group C_1.


----------------------------------------------------------------------------------------

                                     Primitive cell                                     

  volume of cell :      66.4301

  direct lattice vectors                    reciprocal lattice vectors
     4.050000000  0.000000000  0.000000000     0.246913580  0.000000000  0.000000000
     0.000000000  4.050000000  0.000000000     0.000000000  0.246913580  0.000000000
     0.000000000  0.000000000  4.050000000     0.000000000  0.000000000  0.246913580

  length of vectors
     4.050000000  4.050000000  4.050000000     0.246913580  0.246913580  0.246913580

  position of ions in fractional coordinates (direct lattice)
     0.000000000  0.000000000  0.000000000
     0.000000000  0.500000000  0.500000000
     0.500000000  0.000000000  0.500000000
     0.500000000  0.500000000  0.000000000

  ion indices of the primitive-cell ions
   primitive index   ion index
                 1           1
                 2           2
                 3           3
                 4           4

----------------------------------------------------------------------------------------

 
 
 KPOINTS: Kpoints file generated with pyiron_atomi

Automatic generation of k-mesh.
 Grid dimensions read from file:
 generate k-points for:    5    5    5

 Generating k-lattice:

  Cartesian coordinates                     Fractional coordinates (reciprocal lattice)
     0.049382716  0.000000000  0.000000000     0.200000000  0.000000000  0.000000000
     0.000000000  0.049382716  0.000000000     0.000000000  0.200000000  0.000000000
     0.000000000  0.000000000  0.049382716     0.000000000  0.000000000  0.200000000

  Length of vectors
     0.049382716  0.049382716  0.049382716

  Shift w.r.t. Gamma in fractional coordinates (k-lattice)
     0.000000000  0.000000000  0.000000000

 
 Subroutine IBZKPT returns following result:
 ===========================================
 
 Found     63 irreducible k-points:
 
 Following reciprocal coordinates:
            Coordinates               Weight
  0.000000  0.000000  0.000000      1.000000
  0.200000  0.000000  0.000000      2.000000
  0.000000  0.200000  0.000000      2.000000
  0.000000  0.000000  0.200000      2.000000
  0.400000  0.000000  0.000000      2.000000
  0.000000  0.400000  0.000000      2.000000
  0.000000  0.000000  0.400000      2.000000
  0.200000  0.200000  0.000000      2.000000
  0.000000  0.200000  0.200000      2.000000
  0.200000  0.000000  0.200000      2.000000
 -0.200000  0.200000  0.000000      2.000000
 -0.200000  0.000000  0.200000      2.000000
  0.000000 -0.200000  0.200000      2.000000
  0.400000  0.200000  0.000000      2.000000
  0.000000  0.400000  0.200000      2.000000
  0.200000  0.000000  0.400000      2.000000
 -0.200000  0.400000  0.000000      2.000000
 -0.400000  0.000000  0.200000      2.000000
  0.000000  0.200000  0.400000      2.000000
  0.000000 -0.400000  0.200000      2.000000
 -0.200000  0.000000  0.400000      2.000000
  0.400000  0.000000  0.200000      2.000000
  0.000000 -0.200000  0.400000      2.000000
  0.400000 -0.200000  0.000000      2.000000
  0.200000  0.400000  0.000000      2.000000
  0.400000  0.400000  0.000000      2.000000
  0.000000  0.400000  0.400000      2.000000
  0.400000  0.000000  0.400000      2.000000
 -0.400000  0.400000  0.000000      2.000000
 -0.400000  0.000000  0.400000      2.000000
  0.000000 -0.400000  0.400000      2.000000
  0.200000  0.200000  0.200000      2.000000
 -0.200000  0.200000  0.200000      2.000000
 -0.200000 -0.200000  0.200000      2.000000
  0.200000 -0.200000  0.200000      2.000000
  0.400000  0.200000  0.200000      2.000000
  0.200000  0.400000  0.200000      2.000000
  0.200000  0.200000  0.400000      2.000000
 -0.200000  0.400000  0.200000      2.000000
 -0.400000  0.200000  0.200000      2.000000
 -0.200000  0.200000  0.400000      2.000000
 -0.400000 -0.200000  0.200000      2.000000
 -0.200000 -0.400000  0.200000      2.000000
 -0.200000 -0.200000  0.400000      2.000000
  0.200000 -0.400000  0.200000      2.000000
  0.400000 -0.200000  0.200000      2.000000
  0.200000 -0.200000  0.400000      2.000000
  0.400000  0.400000  0.200000      2.000000
  0.200000  0.400000  0.400000      2.000000
  0.400000  0.200000  0.400000      2.000000
 -0.400000  0.400000  0.200000      2.000000
 -0.400000  0.200000  0.400000      2.000000
 -0.200000  0.400000  0.400000      2.000000
 -0.400000 -0.400000  0.200000      2.000000
 -0.200000 -0.400000  0.400000      2.000000
 -0.400000 -0.200000  0.400000      2.000000
  0.400000 -0.400000  0.200000      2.000000
  0.400000 -0.200000  0.400000      2.000000
  0.200000 -0.400000  0.400000      2.000000
  0.400000  0.400000  0.400000      2.000000
 -0.400000  0.400000  0.400000      2.000000
 -0.400000 -0.400000  0.400000      2.000000
  0.400000 -0.400000  0.400000      2.000000
 
 Following cartesian coordinates:
            Coordinates               Weight
  0.000000  0.000000  0.000000      1.000000
  0.049383  0.000000  0.000000      2.000000
  0.000000  0.049383  0.000000      2.000000
  0.000000  0.000000  0.049383      2.000000
  0.098765  0.000000  0.000000      2.000000
  0.000000  0.098765  0.000000      2.000000
  0.000000  0.000000  0.098765      2.000000
  0.049383  0.049383  0.000000      2.000000
  0.000000  0.049383  0.049383      2.000000
  0.049383  0.000000  0.049383      2.000000
 -0.049383  0.049383  0.000000      2.000000
 -0.049383  0.000000  0.049383      2.000000
  0.000000 -0.049383  0.049383      2.000000
  0.098765  0.049383  0.000000      2.000000
  0.000000  0.098765  0.049383      2.000000
  0.049383  0.000000  0.098765      2.000000
 -0.049383  0.098765  0.000000      2.000000
 -0.098765  0.000000  0.049383      2.000000
  0.000000  0.049383  0.098765      2.000000
  0.000000 -0.098765  0.049383      2.000000
 -0.049383  0.000000  0.098765      2.000000
  0.098765  0.000000  0.049383      2.000000
  0.000000 -0.049383  0.098765      2.000000
  0.098765 -0.049383  0.000000      2.000000
  0.049383  0.098765  0.000000      2.000000
  0.098765  0.098765  0.000000      2.000000
  0.000000  0.098765  0.098765      2.000000
  0.098765  0.000000  0.098765      2.000000
 -0.098765  0.098765  0.000000      2.000000
 -0.098765  0.000000  0.098765      2.000000
  0.000000 -0.098765  0.098765      2.000000
  0.049383  0.049383  0.049383      2.000000
 -0.049383  0.049383  0.049383      2.000000
 -0.049383 -0.049383  0.049383      2.000000
  0.049383 -0.049383  0.049383      2.000000
  0.098765  0.049383  0.049383      2.000000
  0.049383  0.098765  0.049383      2.000000
  0.049383  0.049383  0.098765      2.000000
 -0.049383  0.098765  0.049383      2.000000
 -0.098765  0.049383  0.049383      2.000000
 -0.049383  0.049383  0.098765      2.000000
 -0.098765 -0.049383  0.049383      2.000000
 -0.049383 -0.098765  0.049383      2.000000
 -0.049383 -0.049383  0.098765      2.000000
  0.049383 -0.098765  0.049383      2.000000
  0.098765 -0.049383  0.049383      2.000000
  0.049383 -0.049383  0.098765      2.000000
  0.098765  0.098765  0.049383      2.000000
  0.049383  0.098765  0.098765      2.000000
  0.098765  0.049383  0.098765      2.000000
 -0.098765  0.098765  0.049383      2.000000
 -0.098765  0.049383  0.098765      2.000000
 -0.049383  0.098765  0.098765      2.000000
 -0.098765 -0.098765  0.049383      2.000000
 -0.049383 -0.098765  0.098765      2.000000
 -0.098765 -0.049383  0.098765      2.000000
  0.098765 -0.098765  0.049383      2.000000
  0.098765 -0.049383  0.098765      2.000000
  0.049383 -0.098765  0.098765      2.000000
  0.098765  0.098765  0.098765      2.000000
 -0.098765  0.098765  0.098765      2.000000
 -0.098765 -0.098765  0.098765      2.000000
  0.098765 -0.098765  0.098765      2.000000
 


--------------------------------------------------------------------------------------------------------




 Dimension of arrays:
   k-points           NKPTS =     63   k-points in BZ     NKDIM =     63   number of bands    NBANDS=     80
   number of dos      NEDOS =    301   number of ions     NIONS =      4
   non local maximal  LDIM  =      4   non local SUM 2l+1 LMDIM =      8
   total plane-waves  NPLWV =  21952
   max r-space proj   IRMAX =      1   max aug-charges    IRDMAX=  13059
   dimension x,y,z NGX =    28 NGY =   28 NGZ =   28
   dimension x,y,z NGXF=    56 NGYF=   56 NGZF=   56
   support grid    NGXF=    56 NGYF=   56 NGZF=   56
   ions per type =               4
   NGX,Y,Z   is equivalent  to a cutoff of  11.49, 11.49, 11.49 a.u.
   NGXF,Y,Z  is equivalent  to a cutoff of  22.99, 22.99, 22.99 a.u.

 SYSTEM =  calc_md_test                            
 POSCAR =  Poscar file generated with pyiron       

 Startparameter for this run:
   NWRITE =      2    write-flag & timer
   PREC   = accura    normal or accurate (medium, high low for compatibility)
   ISTART =      0    job   : 0-new  1-cont  2-samecut
   ICHARG =      2    charge: 1-file 2-atom 10-const
   ISPIN  =      1    spin polarized calculation?
   LNONCOLLINEAR =      F non collinear calculations
   LSORBIT =      F    spin-orbit coupling
   INIWAV =      1    electr: 0-lowe 1-rand  2-diag
   LASPH  =      F    aspherical Exc in radial PAW
 Electronic Relaxation 1
   ENCUT  =  400.0 eV  29.40 Ry    5.42 a.u.   6.60  6.60  6.60*2*pi/ulx,y,z
   ENINI  =  400.0     initial cutoff
   ENAUG  =  291.1 eV  augmentation charge cutoff
   NELM   =     60;   NELMIN=  2; NELMDL= -5     # of ELM steps 
   EDIFF  = 0.1E-03   stopping-criterion for ELM
   LREAL  =      F    real-space projection
   NLSPLINE    = F    spline interpolate recip. space projectors
   LCOMPAT=      F    compatible to vasp.4.4
   GGA_COMPAT  = T    GGA compatible to vasp.4.4-vasp.4.6
   LMAXPAW     = -100 max onsite density
   LMAXMIX     =    2 max onsite mixed and CHGCAR
   VOSKOWN=      0    Vosko Wilk Nusair interpolation
   ROPT   =    0.00000
 Ionic relaxation
   EDIFFG = 0.1E-02   stopping-criterion for IOM
   NSW    =     10    number of steps for IOM
   NBLOCK =      1;   KBLOCK =     10    inner block; outer block 
   IBRION =      0    ionic relax: 0-MD 1-quasi-New 2-CG
   NFREE  =      0    steps in history (QN), initial steepest desc. (CG)
   ISIF   =      0    stress and relaxation
   IWAVPR =     12    prediction:  0-non 1-charg 2-wave 3-comb
   ISYM   =      0    0-nonsym 1-usesym 2-fastsym
   LCORR  =      T    Harris-Foulkes like correction to forces

   POTIM  = 1.0000    time-step for ionic-motion
   TEIN   =    0.0    initial temperature
   TEBEG  =    0.0;   TEEND  =   0.0 temperature during run
   SMASS  =  -3.00    Nose mass-parameter (am)
   estimated Nose-frequenzy (Omega)   =  0.10E-29 period in steps = 0.63E+46 mass=  -0.375E-27a.u.
   SCALEE = 1.0000    scale energy and forces
   NPACO  =    256;   APACO  = 10.0  distance and # of slots for P.C.
   PSTRESS=    0.0 pullay stress

  Mass of Ions in am
   POMASS =  26.98
  Ionic Valenz
   ZVAL   =   3.00
  Atomic Wigner-Seitz radii
   RWIGS  =  -1.00
  virtual crystal weights 
   VCA    =   1.00
   NELECT =      12.0000    total number of electrons
   NUPDOWN=      -1.0000    fix difference up-down

 DOS related values:
   EMIN   =  10.00;   EMAX   =-10.00  energy-range for DOS
   EFERMI =   0.00;   METHOD = LEGACY      
   ISMEAR =     1;   SIGMA  =   0.20  broadening in eV -4-tet -1-fermi 0-gaus

 Electronic relaxation 2 (details)
   IALGO  =     68    algorithm
   LDIAG  =      T    sub-space diagonalisation (order eigenvalues)
   LSUBROT=      F    optimize rotation matrix (better conditioning)
   TURBO    =      0    0=normal 1=particle mesh
   IRESTART =      0    0=no restart 2=restart with 2 vectors
   NREBOOT  =      0    no. of reboots
   NMIN     =      0    reboot dimension
   EREF     =   0.00    reference energy to select bands
   IMIX   =      4    mixing-type and parameters
     AMIX     =   0.40;   BMIX     =  1.00
     AMIX_MAG =   1.60;   BMIX_MAG =  1.00
     AMIN     =   0.10
     WC   =   100.;   INIMIX=   1;  MIXPRE=   1;  MAXMIX= -45

 Intra band minimization:
   WEIMIN = 0.0010     energy-eigenvalue tresh-hold
   EBREAK =  0.31E-06  absolut break condition
   DEPER  =   0.30     relativ break condition  

   TIME   =   0.40     timestep for ELM

  volume/ion in A,a.u.               =      16.61       112.07
  Fermi-wavevector in a.u.,A,eV,Ry     =   0.925437  1.748822 11.652489  0.856434
  Thomas-Fermi vector in A             =   2.051291
 
 Write flags
   LWAVE        =      F    write WAVECAR
   LDOWNSAMPLE  =      F    k-point downsampling of WAVECAR
   LCHARG       =      F    write CHGCAR
   LVTOT        =      F    write LOCPOT, total local potential
   LVHAR        =      F    write LOCPOT, Hartree potential only
   LELF         =      F    write electronic localiz. function (ELF)
   LORBIT       =      0    0 simple, 1 ext, 2 COOP (PROOUT), +10 PAW based schemes


 Dipole corrections
   LMONO  =      F    monopole corrections only (constant potential shift)
   LDIPOL =      F    correct potential (dipole corrections)
   IDIPOL =      0    1-x, 2-y, 3-z, 4-all directions 
   EPSILON=  1.0000000 bulk dielectric constant

 Exchange correlation treatment:
   GGA     =    --    GGA type
   LEXCH   =     8    internal setting for exchange type
   LIBXC   =     F    Libxc                    
   VOSKOWN =     0    Vosko Wilk Nusair interpolation
   LHFCALC =     F    Hartree Fock is set to
   LHFONE  =     F    Hartree Fock one center treatment
   AEXX    =    0.0000 exact exchange contribution

 Linear response parameters
   LEPSILON=     F    determine dielectric tensor
   LRPA    =     F    only Hartree local field effects (RPA)
   LNABLA  =     F    use nabla operator in PAW spheres
   LVEL    =     F    velocity operator in full k-point grid
   CSHIFT  =0.1000    complex shift for real part using Kramers Kronig
   OMEGAMAX=  -1.0    maximum frequency
   DEG_THRESHOLD= 0.2000000E-02 threshold for treating states as degnerate
   RTIME   =   -0.100 relaxation time in fs
  (WPLASMAI=    0.000 imaginary part of plasma frequency in eV, 0.658/RTIME)
   DFIELD  = 0.0000000 0.0000000 0.0000000 field for delta impulse in time
 
  Optional k-point grid parameters
   LKPOINTS_OPT  =     F    use optional k-point grid
   KPOINTS_OPT_MODE=     1    mode for optional k-point grid
 
 Orbital magnetization related:
   ORBITALMAG=     F  switch on orbital magnetization
   LCHIMAG   =     F  perturbation theory with respect to B field
   DQ        =  0.001000  dq finite difference perturbation B field
   LLRAUG    =     F  two centre corrections for induced B field
   LBONE     =     F  B-component reconstruction in AE one-centre
   LVGVCALC  =     T  calculate vGv susceptibility
   LVGVAPPL  =     F  apply vGv susceptibility instead of pGv for G=0

 Random number generation:
   RANDOM_GENERATOR = DEFAULT
   PCG_SEED         = not used


--------------------------------------------------------------------------------------------------------


 molecular dynamics for ions
   using a microcanonical ensemble
 charge density and potential will be updated during run
 non-spin polarized calculation
 RMM-DIIS sequential band-by-band and
  variant of blocked Davidson during initial phase
 perform sub-space diagonalisation
    before iterative eigenvector-optimisation
 modified Broyden-mixing scheme, WC =      100.0
 initial mixing is a Kerker type mixing with AMIX =  0.4000 and BMIX =      1.0000
 Hartree-type preconditioning will be used
 using additional bands           74
 reciprocal scheme for non local part
 use partial core corrections
 calculate Harris-corrections to forces 
   (improved forces if not selfconsistent)
 use gradient corrections 
 use of overlap-Matrix (Vanderbilt PP)
 Methfessel and Paxton  Order N= 1 SIGMA  =   0.20


--------------------------------------------------------------------------------------------------------


  energy-cutoff  :      400.00
  volume of cell :       66.43
      direct lattice vectors                 reciprocal lattice vectors
     4.050000000  0.000000000  0.000000000     0.246913580  0.000000000  0.000000000
     0.000000000  4.050000000  0.000000000     0.000000000  0.246913580  0.000000000
     0.000000000  0.000000000  4.050000000     0.000000000  0.000000000  0.246913580

  length of vectors
     4.050000000  4.050000000  4.050000000     0.246913580  0.246913580  0.246913580


 
 k-points in units of 2pi/SCALE and weight: Kpoints file generated with pyiron_atomi
   0.00000000  0.00000000  0.00000000       0.008
   0.04938272  0.00000000  0.00000000       0.016
   0.00000000  0.04938272  0.00000000       0.016
   0.00000000  0.00000000  0.04938272       0.016
   0.09876543  0.00000000  0.00000000       0.016
   0.00000000  0.09876543  0.00000000       0.016
   0.00000000  0.00000000  0.09876543       0.016
   0.04938272  0.04938272  0.00000000       0.016
   0.00000000  0.04938272  0.04938272       0.016
   0.04938272  0.00000000  0.04938272       0.016
  -0.04938272  0.04938272  0.00000000       0.016
  -0.04938272  0.00000000  0.04938272       0.016
   0.00000000 -0.04938272  0.04938272       0.016
   0.09876543  0.04938272  0.00000000       0.016
   0.00000000  0.09876543  0.04938272       0.016
   0.04938272  0.00000000  0.09876543       0.016
  -0.04938272  0.09876543  0.00000000       0.016
  -0.09876543  0.00000000  0.04938272       0.016
   0.00000000  0.04938272  0.09876543       0.016
   0.00000000 -0.09876543  0.04938272       0.016
  -0.04938272  0.00000000  0.09876543       0.016
   0.09876543  0.00000000  0.04938272       0.016
   0.00000000 -0.04938272  0.09876543       0.016
   0.09876543 -0.04938272  0.00000000       0.016
   0.04938272  0.09876543  0.00000000       0.016
   0.09876543  0.09876543  0.00000000       0.016
   0.00000000  0.09876543  0.09876543       0.016
   0.09876543  0.00000000  0.09876543       0.016
  -0.09876543  0.09876543  0.00000000       0.016
  -0.09876543  0.00000000  0.09876543       0.016
   0.00000000 -0.09876543  0.09876543       0.016
   0.04938272  0.04938272  0.04938272       0.016
  -0.04938272  0.04938272  0.04938272       0.016
  -0.04938272 -0.04938272  0.04938272       0.016
   0.04938272 -0.04938272  0.04938272       0.016
   0.09876543  0.04938272  0.04938272       0.016
   0.04938272  0.09876543  0.04938272       0.016
   0.04938272  0.04938272  0.09876543       0.016
  -0.04938272  0.09876543  0.04938272       0.016
  -0.09876543  0.04938272  0.04938272       0.016
  -0.04938272  0.04938272  0.09876543       0.016
  -0.09876543 -0.04938272  0.04938272       0.016
  -0.04938272 -0.09876543  0.04938272       0.016
  -0.04938272 -0.04938272  0.09876543       0.016
   0.04938272 -0.09876543  0.04938272       0.016
   0.09876543 -0.04938272  0.04938272       0.016
   0.04938272 -0.04938272  0.09876543       0.016
   0.09876543  0.09876543  0.04938272       0.016
   0.04938272  0.09876543  0.09876543       0.016
   0.09876543  0.04938272  0.09876543       0.016
  -0.09876543  0.09876543  0.04938272       0.016
  -0.09876543  0.04938272  0.09876543       0.016
  -0.04938272  0.09876543  0.09876543       0.016
  -0.09876543 -0.09876543  0.04938272       0.016
  -0.04938272 -0.09876543  0.09876543       0.016
  -0.09876543 -0.04938272  0.09876543       0.016
   0.09876543 -0.09876543  0.04938272       0.016
   0.09876543 -0.04938272  0.09876543       0.016
   0.04938272 -0.09876543  0.09876543       0.016
   0.09876543  0.09876543  0.09876543       0.016
  -0.09876543  0.09876543  0.09876543       0.016
  -0.09876543 -0.09876543  0.09876543       0.016
   0.09876543 -0.09876543  0.09876543       0.016
 
 k-points in reciprocal lattice and weights: Kpoints file generated with pyiron_atomi
   0.00000000  0.00000000  0.00000000       0.008
   0.20000000  0.00000000  0.00000000       0.016
   0.00000000  0.20000000  0.00000000       0.016
   0.00000000  0.00000000  0.20000000       0.016
   0.40000000  0.00000000  0.00000000       0.016
   0.00000000  0.40000000  0.00000000       0.016
   0.00000000  0.00000000  0.40000000       0.016
   0.20000000  0.20000000  0.00000000       0.016
   0.00000000  0.20000000  0.20000000       0.016
   0.20000000  0.00000000  0.20000000       0.016
  -0.20000000  0.20000000  0.00000000       0.016
  -0.20000000  0.00000000  0.20000000       0.016
   0.00000000 -0.20000000  0.20000000       0.016
   0.40000000  0.20000000  0.00000000       0.016
   0.00000000  0.40000000  0.20000000       0.016
   0.20000000  0.00000000  0.40000000       0.016
  -0.20000000  0.40000000  0.00000000       0.016
  -0.40000000  0.00000000  0.20000000       0.016
   0.00000000  0.20000000  0.40000000       0.016
   0.00000000 -0.40000000  0.20000000       0.016
  -0.20000000  0.00000000  0.40000000       0.016
   0.40000000  0.00000000  0.20000000       0.016
   0.00000000 -0.20000000  0.40000000       0.016
   0.40000000 -0.20000000  0.00000000       0.016
   0.20000000  0.40000000  0.00000000       0.016
   0.40000000  0.40000000  0.00000000       0.016
   0.00000000  0.40000000  0.40000000       0.016
   0.40000000  0.00000000  0.40000000       0.016
  -0.40000000  0.40000000  0.00000000       0.016
  -0.40000000  0.00000000  0.40000000       0.016
   0.00000000 -0.40000000  0.40000000       0.016
   0.20000000  0.20000000  0.20000000       0.016
  -0.20000000  0.20000000  0.20000000       0.016
  -0.20000000 -0.20000000  0.20000000       0.016
   0.20000000 -0.20000000  0.20000000       0.016
   0.40000000  0.20000000  0.20000000       0.016
   0.20000000  0.40000000  0.20000000       0.016
   0.20000000  0.20000000  0.40000000       0.016
  -0.20000000  0.40000000  0.20000000       0.016
  -0.40000000  0.20000000  0.20000000       0.016
  -0.20000000  0.20000000  0.40000000       0.016
  -0.40000000 -0.20000000  0.20000000       0.016
  -0.20000000 -0.40000000  0.20000000       0.016
  -0.20000000 -0.20000000  0.40000000       0.016
   0.20000000 -0.40000000  0.20000000       0.016
   0.40000000 -0.20000000  0.20000000       0.016
   0.20000000 -0.20000000  0.40000000       0.016
   0.40000000  0.40000000  0.20000000       0.016
   0.20000000  0.40000000  0.40000000       0.016
   0.40000000  0.20000000  0.40000000       0.016
  -0.40000000  0.40000000  0.20000000       0.016
  -0.40000000  0.20000000  0.40000000       0.016
  -0.20000000  0.40000000  0.40000000       0.016
  -0.40000000 -0.40000000  0.20000000       0.016
  -0.20000000 -0.40000000  0.40000000       0.016
  -0.40000000 -0.20000000  0.40000000       0.016
   0.40000000 -0.40000000  0.20000000       0.016
   0.40000000 -0.20000000  0.40000000       0.016
   0.20000000 -0.40000000  0.40000000       0.016
   0.40000000  0.40000000  0.40000000       0.016
  -0.40000000  0.40000000  0.40000000       0.016
  -0.40000000 -0.40000000  0.40000000       0.016
   0.40000000 -0.40000000  0.40000000       0.016
 
 position of ions in fractional coordinates (direct lattice) 
   0.00000000  0.00000000  0.00000000
   0.00000000  0.50000000  0.50000000
   0.50000000  0.00000000  0.50000000
   0.50000000  0.50000000  0.00000000
 
 position of ions in cartesian coordinates  (Angst):
   0.00000000  0.00000000  0.00000000
   0.00000000  2.02500000  2.02500000
   2.02500000  0.00000000  2.02500000
   2.02500000  2.02500000  0.00000000
 


--------------------------------------------------------------------------------------------------------


 k-point   1 :   0.0000 0.0000 0.0000  plane waves:    1213
 k-point   2 :   0.2000 0.0000 0.0000  plane waves:    1217
 k-point   3 :   0.0000 0.2000 0.0000  plane waves:    1217
 k-point   4 :   0.0000 0.0000 0.2000  plane waves:    1217
 k-point   5 :   0.4000 0.0000 0.0000  plane waves:    1210
 k-point   6 :   0.0000 0.4000 0.0000  plane waves:    1210
 k-point   7 :   0.0000 0.0000 0.4000  plane waves:    1210
 k-point   8 :   0.2000 0.2000 0.0000  plane waves:    1207
 k-point   9 :   0.0000 0.2000 0.2000  plane waves:    1207
 k-point  10 :   0.2000 0.0000 0.2000  plane waves:    1207
 k-point  11 :  -0.2000 0.2000 0.0000  plane waves:    1207
 k-point  12 :  -0.2000 0.0000 0.2000  plane waves:    1207
 k-point  13 :   0.0000-0.2000 0.2000  plane waves:    1207
 k-point  14 :   0.4000 0.2000 0.0000  plane waves:    1216
 k-point  15 :   0.0000 0.4000 0.2000  plane waves:    1216
 k-point  16 :   0.2000 0.0000 0.4000  plane waves:    1216
 k-point  17 :  -0.2000 0.4000 0.0000  plane waves:    1216
 k-point  18 :  -0.4000 0.0000 0.2000  plane waves:    1216
 k-point  19 :   0.0000 0.2000 0.4000  plane waves:    1216
 k-point  20 :   0.0000-0.4000 0.2000  plane waves:    1216
 k-point  21 :  -0.2000 0.0000 0.4000  plane waves:    1216
 k-point  22 :   0.4000 0.0000 0.2000  plane waves:    1216
 k-point  23 :   0.0000-0.2000 0.4000  plane waves:    1216
 k-point  24 :   0.4000-0.2000 0.0000  plane waves:    1216
 k-point  25 :   0.2000 0.4000 0.0000  plane waves:    1216
 k-point  26 :   0.4000 0.4000 0.0000  plane waves:    1200
 k-point  27 :   0.0000 0.4000 0.4000  plane waves:    1200
 k-point  28 :   0.4000 0.0000 0.4000  plane waves:    1200
 k-point  29 :  -0.4000 0.4000 0.0000  plane waves:    1200
 k-point  30 :  -0.4000 0.0000 0.4000  plane waves:    1200
 k-point  31 :   0.0000-0.4000 0.4000  plane waves:    1200
 k-point  32 :   0.2000 0.2000 0.2000  plane waves:    1214
 k-point  33 :  -0.2000 0.2000 0.2000  plane waves:    1214
 k-point  34 :  -0.2000-0.2000 0.2000  plane waves:    1214
 k-point  35 :   0.2000-0.2000 0.2000  plane waves:    1214
 k-point  36 :   0.4000 0.2000 0.2000  plane waves:    1196
 k-point  37 :   0.2000 0.4000 0.2000  plane waves:    1196
 k-point  38 :   0.2000 0.2000 0.4000  plane waves:    1196
 k-point  39 :  -0.2000 0.4000 0.2000  plane waves:    1196
 k-point  40 :  -0.4000 0.2000 0.2000  plane waves:    1196
 k-point  41 :  -0.2000 0.2000 0.4000  plane waves:    1196
 k-point  42 :  -0.4000-0.2000 0.2000  plane waves:    1196
 k-point  43 :  -0.2000-0.4000 0.2000  plane waves:    1196
 k-point  44 :  -0.2000-0.2000 0.4000  plane waves:    1196
 k-point  45 :   0.2000-0.4000 0.2000  plane waves:    1196
 k-point  46 :   0.4000-0.2000 0.2000  plane waves:    1196
 k-point  47 :   0.2000-0.2000 0.4000  plane waves:    1196
 k-point  48 :   0.4000 0.4000 0.2000  plane waves:    1203
 k-point  49 :   0.2000 0.4000 0.4000  plane waves:    1203
 k-point  50 :   0.4000 0.2000 0.4000  plane waves:    1203
 k-point  51 :  -0.4000 0.4000 0.2000  plane waves:    1203
 k-point  52 :  -0.4000 0.2000 0.4000  plane waves:    1203
 k-point  53 :  -0.2000 0.4000 0.4000  plane waves:    1203
 k-point  54 :  -0.4000-0.4000 0.2000  plane waves:    1203
 k-point  55 :  -0.2000-0.4000 0.4000  plane waves:    1203
 k-point  56 :  -0.4000-0.2000 0.4000  plane waves:    1203
 k-point  57 :   0.4000-0.4000 0.2000  plane waves:    1203
 k-point  58 :   0.4000-0.2000 0.4000  plane waves:    1203
 k-point  59 :   0.2000-0.4000 0.4000  plane waves:    1203
 k-point  60 :   0.4000 0.4000 0.4000  plane waves:    1196
 k-point  61 :  -0.4000 0.4000 0.4000  plane waves:    1196
 k-point  62 :  -0.4000-0.4000 0.4000  plane waves:    1196
 k-point  63 :   0.4000-0.4000 0.4000  plane waves:    1196

 maximum and minimum number of plane-waves per node :      1217     1196

 maximum number of plane-waves:      1217
 maximum index in each direction: 
   IXMAX=    7   IYMAX=    7   IZMAX=    6
   IXMIN=   -7   IYMIN=   -7   IZMIN=   -7


 serial   3D FFT for wavefunctions
 parallel 3D FFT for charge:
    minimum data exchange during FFTs selected (reduces bandwidth)


 total amount of memory used by VASP MPI-rank0    37883. kBytes
=======================================================================

   base      :      30000. kBytes
   nonl-proj :       5242. kBytes
   fftplans  :        215. kBytes
   grid      :       1044. kBytes
   one-center:         12. kBytes
   wavefun   :       1370. kBytes
 
     INWAV:  cpu time      0.0000: real time      0.0000
 Broyden mixing: mesh for mixing (old mesh)
   NGX = 13   NGY = 13   NGZ = 13
  (NGX  = 56   NGY  = 56   NGZ  = 56)
  gives a total of   2197 points

 initial charge density was supplied:
 charge density of overlapping atoms calculated
 number of electron      12.0000000 magnetization 
 keeping initial charge density in first step


--------------------------------------------------------------------------------------------------------


 Maximum index for augmentation-charges          657 (set IRDMAX)


--------------------------------------------------------------------------------------------------------


 First call to EWALD:  gamma=   0.438
 Maximum number of real-space cells 3x 3x 3
 Maximum number of reciprocal cells 3x 3x 3

    FEWALD:  cpu time      0.0020: real time      0.0020


--------------------------------------- Ionic step        1  -------------------------------------------




--------------------------------------- Iteration      1(   1)  ---------------------------------------


    POTLOK:  cpu time      0.0133: real time      0.0134
    SETDIJ:  cpu time      0.0024: real time      0.0024
     EDDAV:  cpu time      5.9108: real time      5.9112
       DOS:  cpu time      0.0026: real time      0.0026
    --------------------------------------------
      LOOP:  cpu time      5.9291: real time      5.9297

 eigenvalue-minimisations  : 10800
 total energy-change (2. order) :-0.1305266E+02  (-0.3984540E+03)
 number of electron      12.0000000 magnetization 
 augmentation part       12.0000000 magnetization 

 Free energy of the ion-electron system (eV)
  ---------------------------------------------------
  alpha Z        PSCENC =        -0.80898476
  Ewald energy   TEWEN  =      -293.42683892
  -Hartree energ DENC   =        -0.41547172
  -exchange      EXHF   =         0.00000000
  -V(xc)+E(xc)   XCENC  =      -105.00570312
  PAW double counting   =       264.80062850     -136.98248303
  entropy T*S    EENTRO =        -0.00598053
  eigenvalues    EBANDS =        44.63955210
  atomic energy  EATOM  =       214.15261729
  Solvation  Ediel_sol  =         0.00000000
  ---------------------------------------------------
  free energy    TOTEN  =       -13.05266418 eV

  energy without entropy =      -13.04668364  energy(sigma->0) =      -13.05067067


--------------------------------------------------------------------------------------------------------




--------------------------------------- Iteration      1(   2)  ---------------------------------------


     EDDAV:  cpu time     12.4119: real time     12.4141
       DOS:  cpu time      0.0017: real time      0.0017
    --------------------------------------------
      LOOP:  cpu time     12.4136: real time     12.4158

 eigenvalue-minimisations  : 15520
 total energy-change (2. order) :-0.2025373E+01  (-0.2014744E+01)
 number of electron      12.0000000 magnetization 
 augmentation part       12.0000000 magnetization 

 Free energy of the ion-electron system (eV)
  ---------------------------------------------------
  alpha Z        PSCENC =        -0.80898476
  Ewald energy   TEWEN  =      -293.42683892
  -Hartree energ DENC   =        -0.41547172
  -exchange      EXHF   =         0.00000000
  -V(xc)+E(xc)   XCENC  =      -105.00570312
  PAW double counting   =       264.80062850     -136.98248303
  entropy T*S    EENTRO =        -0.00741065
  eigenvalues    EBANDS =        42.61560945
  atomic energy  EATOM  =       214.15261729
  Solvation  Ediel_sol  =         0.00000000
  ---------------------------------------------------
  free energy    TOTEN  =       -15.07803695 eV

  energy without entropy =      -15.07062629  energy(sigma->0) =      -15.07556673


--------------------------------------------------------------------------------------------------------




--------------------------------------- Iteration      1(   3)  ---------------------------------------


     EDDAV:  cpu time      4.9918: real time      4.9946
       DOS:  cpu time      0.0016: real time      0.0016
    --------------------------------------------
      LOOP:  cpu time      4.9933: real time      4.9962

 eigenvalue-minimisations  : 10080
 total energy-change (2. order) :-0.3951075E-03  (-0.3951067E-03)
 number of electron      12.0000000 magnetization 
 augmentation part       12.0000000 magnetization 

 Free energy of the ion-electron system (eV)
  ---------------------------------------------------
  alpha Z        PSCENC =        -0.80898476
  Ewald energy   TEWEN  =      -293.42683892
  -Hartree energ DENC   =        -0.41547172
  -exchange      EXHF   =         0.00000000
  -V(xc)+E(xc)   XCENC  =      -105.00570312
  PAW double counting   =       264.80062850     -136.98248303
  entropy T*S    EENTRO =        -0.00741063
  eigenvalues    EBANDS =        42.61521433
  atomic energy  EATOM  =       214.15261729
  Solvation  Ediel_sol  =         0.00000000
  ---------------------------------------------------
  free energy    TOTEN  =       -15.07843205 eV

  energy without entropy =      -15.07102142  energy(sigma->0) =      -15.07596184


--------------------------------------------------------------------------------------------------------




--------------------------------------- Iteration      1(   4)  ---------------------------------------


     EDDAV:  cpu time     23.7005: real time     23.7046
       DOS:  cpu time      0.0017: real time      0.0017
    --------------------------------------------
      LOOP:  cpu time     23.7022: real time     23.7063

 eigenvalue-minimisations  : 20080
 total energy-change (2. order) :-0.8904669E-07  (-0.8850171E-07)
 number of electron      12.0000000 magnetization 
 augmentation part       12.0000000 magnetization 

 Free energy of the ion-electron system (eV)
  ---------------------------------------------------
  alpha Z        PSCENC =        -0.80898476
  Ewald energy   TEWEN  =      -293.42683892
  -Hartree energ DENC   =        -0.41547172
  -exchange      EXHF   =         0.00000000
  -V(xc)+E(xc)   XCENC  =      -105.00570312
  PAW double counting   =       264.80062850     -136.98248303
  entropy T*S    EENTRO =        -0.00741063
  eigenvalues    EBANDS =        42.61521424
  atomic energy  EATOM  =       214.15261729
  Solvation  Ediel_sol  =         0.00000000
  ---------------------------------------------------
  free energy    TOTEN  =       -15.07843214 eV

  energy without entropy =      -15.07102151  energy(sigma->0) =      -15.07596193


--------------------------------------------------------------------------------------------------------




--------------------------------------- Iteration      1(   5)  ---------------------------------------


     EDDAV:  cpu time      5.3377: real time      5.3407
       DOS:  cpu time      0.0016: real time      0.0016
    CHARGE:  cpu time      0.0236: real time      0.0236
    MIXING:  cpu time      0.0016: real time      0.0017
    --------------------------------------------
      LOOP:  cpu time      5.3644: real time      5.3676

 eigenvalue-minimisations  : 10080
 total energy-change (2. order) :-0.2949037E-09  ( 0.1204208E-12)
 number of electron      11.9999999 magnetization 
 augmentation part       -0.1502110 magnetization 

 Broyden mixing:
  rms(total) = 0.25675E+00    rms(broyden)= 0.25675E+00
  rms(prec ) = 0.46488E+00
  weight for this iteration     100.00

 Free energy of the ion-electron system (eV)
  ---------------------------------------------------
  alpha Z        PSCENC =        -0.80898476
  Ewald energy   TEWEN  =      -293.42683892
  -Hartree energ DENC   =        -0.41547172
  -exchange      EXHF   =         0.00000000
  -V(xc)+E(xc)   XCENC  =      -105.00570312
  PAW double counting   =       264.80062850     -136.98248303
  entropy T*S    EENTRO =        -0.00741063
  eigenvalues    EBANDS =        42.61521424
  atomic energy  EATOM  =       214.15261729
  Solvation  Ediel_sol  =         0.00000000
  ---------------------------------------------------
  free energy    TOTEN  =       -15.07843214 eV

  energy without entropy =      -15.07102151  energy(sigma->0) =      -15.07596193


--------------------------------------------------------------------------------------------------------




--------------------------------------- Iteration      1(   6)  ---------------------------------------


    POTLOK:  cpu time      0.0075: real time      0.0100
    SETDIJ:  cpu time      0.0014: real time      0.0014
    EDDIAG:  cpu time      0.4324: real time      0.4327
  RMM-DIIS:  cpu time      0.1275: real time      0.1276
    ORTHCH:  cpu time      0.0550: real time      0.0550
       DOS:  cpu time      0.0008: real time      0.0008
    CHARGE:  cpu time      0.0231: real time      0.0231
    MIXING:  cpu time      0.0007: real time      0.0035
    --------------------------------------------
      LOOP:  cpu time      0.6484: real time      0.6541

 eigenvalue-minimisations  : 10080
 total energy-change (2. order) : 0.5217747E-01  (-0.1078719E-03)
 number of electron      11.9999999 magnetization 
 augmentation part       -0.1527834 magnetization 

 Broyden mixing:
  rms(total) = 0.14728E+00    rms(broyden)= 0.14728E+00
  rms(prec ) = 0.28342E+00
  weight for this iteration     100.00

 eigenvalues of (default mixing * dielectric matrix)
  average eigenvalue GAMMA=   2.2753
  2.2753

 Free energy of the ion-electron system (eV)
  ---------------------------------------------------
  alpha Z        PSCENC =        -0.80898476
  Ewald energy   TEWEN  =      -293.42683892
  -Hartree energ DENC   =        -0.34138019
  -exchange      EXHF   =         0.00000000
  -V(xc)+E(xc)   XCENC  =      -104.86951824
  PAW double counting   =       377.76356473     -249.95651722
  entropy T*S    EENTRO =        -0.00706020
  eigenvalues    EBANDS =        42.46786283
  atomic energy  EATOM  =       214.15261729
  Solvation  Ediel_sol  =         0.00000000
  ---------------------------------------------------
  free energy    TOTEN  =       -15.02625467 eV

  energy without entropy =      -15.01919447  energy(sigma->0) =      -15.02390127


--------------------------------------------------------------------------------------------------------




--------------------------------------- Iteration      1(   7)  ---------------------------------------


    POTLOK:  cpu time      0.0070: real time      0.0095
    SETDIJ:  cpu time      0.0014: real time      0.0014
    EDDIAG:  cpu time      0.4072: real time      0.4072
  RMM-DIIS:  cpu time      0.1263: real time      0.1263
    ORTHCH:  cpu time      0.0546: real time      0.0546
       DOS:  cpu time      0.0008: real time      0.0008
    CHARGE:  cpu time      0.0230: real time      0.0230
    MIXING:  cpu time      0.0004: real time      0.0004
    --------------------------------------------
      LOOP:  cpu time      0.6206: real time      0.6231

 eigenvalue-minimisations  : 10080
 total energy-change (2. order) : 0.3775366E-01  (-0.2659446E-03)
 number of electron      11.9999999 magnetization 
 augmentation part       -0.1571927 magnetization 

 Broyden mixing:
  rms(total) = 0.26826E-01    rms(broyden)= 0.26826E-01
  rms(prec ) = 0.29781E-01
  weight for this iteration     100.00

 eigenvalues of (default mixing * dielectric matrix)
  average eigenvalue GAMMA=   2.5480
  2.5480  2.5480

 Free energy of the ion-electron system (eV)
  ---------------------------------------------------
  alpha Z        PSCENC =        -0.80898476
  Ewald energy   TEWEN  =      -293.42683892
  -Hartree energ DENC   =        -0.38465317
  -exchange      EXHF   =         0.00000000
  -V(xc)+E(xc)   XCENC  =      -104.60602560
  PAW double counting   =       592.54849280     -464.76544699
  entropy T*S    EENTRO =        -0.00674177
  eigenvalues    EBANDS =        42.30908012
  atomic energy  EATOM  =       214.15261729
  Solvation  Ediel_sol  =         0.00000000
  ---------------------------------------------------
  free energy    TOTEN  =       -14.98850101 eV

  energy without entropy =      -14.98175924  energy(sigma->0) =      -14.98625375


--------------------------------------------------------------------------------------------------------




--------------------------------------- Iteration      1(   8)  ---------------------------------------


    POTLOK:  cpu time      0.0050: real time      0.0090
    SETDIJ:  cpu time      0.0014: real time      0.0014
    EDDIAG:  cpu time      0.4036: real time      0.4036
  RMM-DIIS:  cpu time      0.1263: real time      0.1263
    ORTHCH:  cpu time      0.0540: real time      0.0540
       DOS:  cpu time      0.0008: real time      0.0008
    CHARGE:  cpu time      0.0225: real time      0.0225
    MIXING:  cpu time      0.0003: real time      0.0003
    --------------------------------------------
      LOOP:  cpu time      0.6138: real time      0.6179

 eigenvalue-minimisations  : 10010
 total energy-change (2. order) : 0.1614317E-03  (-0.8341445E-05)
 number of electron      11.9999999 magnetization 
 augmentation part       -0.1570664 magnetization 

 Broyden mixing:
  rms(total) = 0.19484E-02    rms(broyden)= 0.19483E-02
  rms(prec ) = 0.30759E-02
  weight for this iteration     100.00

 eigenvalues of (default mixing * dielectric matrix)
  average eigenvalue GAMMA=   1.9558
  2.6172  2.4064  0.8438

 Free energy of the ion-electron system (eV)
  ---------------------------------------------------
  alpha Z        PSCENC =        -0.80898476
  Ewald energy   TEWEN  =      -293.42683892
  -Hartree energ DENC   =        -0.39872272
  -exchange      EXHF   =         0.00000000
  -V(xc)+E(xc)   XCENC  =      -104.58503435
  PAW double counting   =       550.85968824     -423.08732596
  entropy T*S    EENTRO =        -0.00676956
  eigenvalues    EBANDS =        42.31303117
  atomic energy  EATOM  =       214.15261729
  Solvation  Ediel_sol  =         0.00000000
  ---------------------------------------------------
  free energy    TOTEN  =       -14.98833958 eV

  energy without entropy =      -14.98157001  energy(sigma->0) =      -14.98608306


--------------------------------------------------------------------------------------------------------




--------------------------------------- Iteration      1(   9)  ---------------------------------------


    POTLOK:  cpu time      0.0060: real time      0.0088
    SETDIJ:  cpu time      0.0014: real time      0.0014
    EDDIAG:  cpu time      0.4025: real time      0.4025
  RMM-DIIS:  cpu time      0.1254: real time      0.1254
    ORTHCH:  cpu time      0.0533: real time      0.0534
       DOS:  cpu time      0.0008: real time      0.0008
    --------------------------------------------
      LOOP:  cpu time      0.5894: real time      0.5922

 eigenvalue-minimisations  :  9233
 total energy-change (2. order) : 0.4320463E-05  (-0.6941700E-06)
 number of electron      11.9999999 magnetization 
 augmentation part       -0.1570664 magnetization 

 Free energy of the ion-electron system (eV)
  ---------------------------------------------------
  alpha Z        PSCENC =        -0.80898476
  Ewald energy   TEWEN  =      -293.42683892
  -Hartree energ DENC   =        -0.40051117
  -exchange      EXHF   =         0.00000000
  -V(xc)+E(xc)   XCENC  =      -104.58179843
  PAW double counting   =       553.80387857     -426.03189074
  entropy T*S    EENTRO =        -0.00676893
  eigenvalues    EBANDS =        42.31196183
  atomic energy  EATOM  =       214.15261729
  Solvation  Ediel_sol  =         0.00000000
  ---------------------------------------------------
  free energy    TOTEN  =       -14.98833526 eV

  energy without entropy =      -14.98156633  energy(sigma->0) =      -14.98607895


--------------------------------------------------------------------------------------------------------




 average (electrostatic) potential at core
  the test charge radii are     1.0406
  (the norm of the test charge is              1.0000)
       1 -72.7023       2 -72.7023       3 -72.7023       4 -72.7023
 
 
 
 E-fermi :   8.0665     XC(G=0): -10.1735     alpha+bet :-14.7800

 Fermi energy:         8.0665145706

 k-point     1 :       0.0000    0.0000    0.0000
  band No.  band energies     occupation 
      1      -3.1573      2.00000
      2       5.0238      2.00000
      3       5.0238      2.00000
      4       5.0238      2.00000
      5       6.3332      2.00000
      6       6.3332      2.00000
      7       6.3332      2.00000
      8      13.1885     -0.00000
      9      13.1885     -0.00000
     10      13.1885     -0.00000
     11      13.4965     -0.00000
     12      13.4965     -0.00000
     13      13.4965     -0.00000
     14      13.4965     -0.00000
     15      13.4965     -0.00000
     16      13.4965     -0.00000
     17      16.9412      0.00000
     18      16.9412      0.00000
     19      16.9412      0.00000
     20      20.5179      0.00000
     21      20.5179      0.00000
     22      20.5179      0.00000
     23      21.9585      0.00000
     24      21.9585      0.00000
     25      21.9585      0.00000
     26      24.3500      0.00000
     27      27.2883      0.00000
     28      27.2883      0.00000
     29      30.1239      0.00000
     30      32.4754      0.00000
     31      32.4754      0.00000
     32      32.4754      0.00000
     33      33.2510      0.00000
     34      33.2510      0.00000
     35      33.2510      0.00000
     36      34.7613      0.00000
     37      34.7613      0.00000
     38      34.7613      0.00000
     39      34.7613      0.00000
     40      34.7613      0.00000
     41      34.7613      0.00000
     42      40.4013      0.00000
     43      40.4013      0.00000
     44      40.4013      0.00000
     45      41.0081      0.00000
     46      41.1857      0.00000
     47      41.1857      0.00000
     48      41.1857      0.00000
     49      41.1857      0.00000
     50      41.1857      0.00000
     51      41.1857      0.00000
     52      41.6003      0.00000
     53      41.6003      0.00000
     54      41.6003      0.00000
     55      42.5445      0.00000
     56      42.5445      0.00000
     57      42.5445      0.00000
     58      48.2573      0.00000
     59      48.2573      0.00000
     60      48.2573      0.00000
     61      48.2573      0.00000
     62      48.2573      0.00000
     63      48.2573      0.00000
     64      48.8639      0.00000
     65      48.8639      0.00000
     66      48.8639      0.00000
     67      49.2732      0.00000
     68      49.2732      0.00000
     69      49.2732      0.00000
     70      49.2732      0.00000
     71      49.2732      0.00000
     72      49.2732      0.00000
     73      50.2164      0.00000
     74      50.2164      0.00000
     75      50.2164      0.00000
     76      50.6006      0.00000
     77      50.6006      0.00000
     78      50.6006      0.00000
     79      52.6510      0.00000
     80      52.6514      0.00000

 k-point     2 :       0.2000    0.0000    0.0000
  band No.  band energies     occupation 
      1      -2.7968      2.00000
      2       2.4925      2.00000
      3       5.3546      2.00000
      4       5.3546      2.00000
      5       6.6809      2.00000
      6       6.6809      2.00000
      7       9.4900     -0.00000
      8      10.3362     -0.00000
      9      10.3362     -0.00000
     10      11.7710     -0.00000
     11      11.7710     -0.00000
     12      13.5444      0.00000
     13      13.8034      0.00000
     14      13.8034      0.00000
     15      17.0152      0.00000
     16      17.0152      0.00000
     17      17.2689      0.00000
     18      18.3868      0.00000
     19      18.3868      0.00000
     20      18.6831      0.00000
     21      19.2030      0.00000
     22      19.2030      0.00000
     23      21.1705      0.00000
     24      23.8055      0.00000
     25      24.6106      0.00000
     26      24.6106      0.00000
     27      26.9069      0.00000
     28      27.6197      0.00000
     29      30.7071      0.00000
     30      31.3499      0.00000
     31      31.3499      0.00000
     32      31.4325      0.00000
     33      31.4325      0.00000
     34      32.0981      0.00000
     35      32.8955      0.00000
     36      32.8955      0.00000
     37      33.6619      0.00000
     38      33.6619      0.00000
     39      34.8330      0.00000
     40      34.8330      0.00000
     41      35.8984      0.00000
     42      38.9642      0.00000
     43      39.9476      0.00000
     44      39.9476      0.00000
     45      40.9798      0.00000
     46      40.9798      0.00000
     47      41.3080      0.00000
     48      41.3080      0.00000
     49      41.3779      0.00000
     50      41.3779      0.00000
     51      42.2666      0.00000
     52      42.6136      0.00000
     53      42.7868      0.00000
     54      42.8265      0.00000
     55      42.8265      0.00000
     56      43.3625      0.00000
     57      44.0701      0.00000
     58      44.0701      0.00000
     59      44.5985      0.00000
     60      44.5985      0.00000
     61      46.2207      0.00000
     62      46.2207      0.00000
     63      46.4426      0.00000
     64      46.4426      0.00000
     65      48.4031      0.00000
     66      48.4031      0.00000
     67      50.7859      0.00000
     68      50.7859      0.00000
     69      51.1361      0.00000
     70      52.3330      0.00000
     71      52.3330      0.00000
     72      53.0218      0.00000
     73      53.0218      0.00000
     74      53.1956      0.00000
     75      53.1956      0.00000
     76      53.2619      0.00000
     77      53.2620      0.00000
     78      54.0133      0.00000
     79      55.4121      0.00000
     80      55.4121      0.00000

 k-point     3 :       0.0000    0.2000    0.0000
  band No.  band energies     occupation 
      1      -2.7968      2.00000
      2       2.4925      2.00000
      3       5.3546      2.00000
      4       5.3546      2.00000
      5       6.6809      2.00000
      6       6.6809      2.00000
      7       9.4900     -0.00000
      8      10.3362     -0.00000
      9      10.3362     -0.00000
     10      11.7710     -0.00000
     11      11.7710     -0.00000
     12      13.5444      0.00000
     13      13.8034      0.00000
     14      13.8034      0.00000
     15      17.0152      0.00000
     16      17.0152      0.00000
     17      17.2689      0.00000
     18      18.3868      0.00000
     19      18.3868      0.00000
     20      18.6831      0.00000
     21      19.2030      0.00000
     22      19.2030      0.00000
     23      21.1705      0.00000
     24      23.8055      0.00000
     25      24.6106      0.00000
     26      24.6106      0.00000
     27      26.9069      0.00000
     28      27.6197      0.00000
     29      30.7071      0.00000
     30      31.3499      0.00000
     31      31.3499      0.00000
     32      31.4325      0.00000
     33      31.4325      0.00000
     34      32.0981      0.00000
     35      32.8955      0.00000
     36      32.8955      0.00000
     37      33.6619      0.00000
     38      33.6619      0.00000
     39      34.8330      0.00000
     40      34.8330      0.00000
     41      35.8984      0.00000
     42      38.9642      0.00000
     43      39.9476      0.00000
     44      39.9476      0.00000
     45      40.9798      0.00000
     46      40.9798      0.00000
     47      41.3080      0.00000
     48      41.3080      0.00000
     49      41.3779      0.00000
     50      41.3779      0.00000
     51      42.2666      0.00000
     52      42.6136      0.00000
     53      42.7868      0.00000
     54      42.8265      0.00000
     55      42.8265      0.00000
     56      43.3625      0.00000
     57      44.0701      0.00000
     58      44.0701      0.00000
     59      44.5985      0.00000
     60      44.5985      0.00000
     61      46.2207      0.00000
     62      46.2207      0.00000
     63      46.4426      0.00000
     64      46.4426      0.00000
     65      48.4031      0.00000
     66      48.4031      0.00000
     67      50.7859      0.00000
     68      50.7859      0.00000
     69      51.1361      0.00000
     70      52.3330      0.00000
     71      52.3330      0.00000
     72      53.0218      0.00000
     73      53.0218      0.00000
     74      53.1956      0.00000
     75      53.1956      0.00000
     76      53.2619      0.00000
     77      53.2620      0.00000
     78      54.0139      0.00000
     79      55.4080      0.00000
     80      55.4118      0.00000

 k-point     4 :       0.0000    0.0000    0.2000
  band No.  band energies     occupation 
      1      -2.7968      2.00000
      2       2.4925      2.00000
      3       5.3546      2.00000
      4       5.3546      2.00000
      5       6.6809      2.00000
      6       6.6809      2.00000
      7       9.4900     -0.00000
      8      10.3362     -0.00000
      9      10.3362     -0.00000
     10      11.7710     -0.00000
     11      11.7710     -0.00000
     12      13.5444      0.00000
     13      13.8034      0.00000
     14      13.8034      0.00000
     15      17.0152      0.00000
     16      17.0152      0.00000
     17      17.2689      0.00000
     18      18.3868      0.00000
     19      18.3868      0.00000
     20      18.6831      0.00000
     21      19.2030      0.00000
     22      19.2030      0.00000
     23      21.1705      0.00000
     24      23.8055      0.00000
     25      24.6106      0.00000
     26      24.6106      0.00000
     27      26.9069      0.00000
     28      27.6197      0.00000
     29      30.7071      0.00000
     30      31.3499      0.00000
     31      31.3499      0.00000
     32      31.4325      0.00000
     33      31.4325      0.00000
     34      32.0981      0.00000
     35      32.8955      0.00000
     36      32.8955      0.00000
     37      33.6619      0.00000
     38      33.6619      0.00000
     39      34.8330      0.00000
     40      34.8330      0.00000
     41      35.8984      0.00000
     42      38.9642      0.00000
     43      39.9476      0.00000
     44      39.9476      0.00000
     45      40.9798      0.00000
     46      40.9798      0.00000
     47      41.3080      0.00000
     48      41.3080      0.00000
     49      41.3779      0.00000
     50      41.3779      0.00000
     51      42.2666      0.00000
     52      42.6136      0.00000
     53      42.7868      0.00000
     54      42.8265      0.00000
     55      42.8265      0.00000
     56      43.3625      0.00000
     57      44.0701      0.00000
     58      44.0701      0.00000
     59      44.5985      0.00000
     60      44.5985      0.00000
     61      46.2207      0.00000
     62      46.2207      0.00000
     63      46.4426      0.00000
     64      46.4426      0.00000
     65      48.4031      0.00000
     66      48.4031      0.00000
     67      50.7859      0.00000
     68      50.7859      0.00000
     69      51.1361      0.00000
     70      52.3330      0.00000
     71      52.3330      0.00000
     72      53.0218      0.00000
     73      53.0218      0.00000
     74      53.1956      0.00000
     75      53.1956      0.00000
     76      53.2620      0.00000
     77      53.2621      0.00000
     78      54.0140      0.00000
     79      55.4098      0.00000
     80      55.4122      0.00000

 k-point     5 :       0.4000    0.0000    0.0000
  band No.  band energies     occupation 
      1      -1.7204      2.00000
      2       0.0548      2.00000
      3       6.3480      2.00000
      4       6.3480      2.00000
      5       7.6707      2.01709
      6       7.6707      2.01709
      7       8.0075      1.47591
      8       8.0075      1.47590
      9       9.6017     -0.00000
     10       9.6017     -0.00000
     11      13.7963      0.00000
     12      14.6072      0.00000
     13      14.7247      0.00000
     14      14.7247      0.00000
     15      16.2599      0.00000
     16      16.2599      0.00000
     17      16.3554      0.00000
     18      18.2127      0.00000
     19      18.6421      0.00000
     20      19.6356      0.00000
     21      21.3251      0.00000
     22      21.3251      0.00000
     23      22.9059      0.00000
     24      22.9059      0.00000
     25      26.2007      0.00000
     26      26.2007      0.00000
     27      27.6206      0.00000
     28      27.6206      0.00000
     29      28.1171      0.00000
     30      28.1171      0.00000
     31      28.6055      0.00000
     32      30.1796      0.00000
     33      31.2922      0.00000
     34      31.2922      0.00000
     35      31.3944      0.00000
     36      32.9497      0.00000
     37      34.3127      0.00000
     38      34.3127      0.00000
     39      34.9539      0.00000
     40      34.9539      0.00000
     41      35.7958      0.00000
     42      36.7316      0.00000
     43      37.1919      0.00000
     44      37.1919      0.00000
     45      39.2472      0.00000
     46      39.7465      0.00000
     47      39.7465      0.00000
     48      41.7957      0.00000
     49      41.9341      0.00000
     50      41.9341      0.00000
     51      42.3020      0.00000
     52      42.3020      0.00000
     53      42.7985      0.00000
     54      42.7985      0.00000
     55      43.9495      0.00000
     56      43.9495      0.00000
     57      43.9843      0.00000
     58      43.9843      0.00000
     59      45.0718      0.00000
     60      45.0718      0.00000
     61      46.3019      0.00000
     62      46.9764      0.00000
     63      46.9764      0.00000
     64      47.6131      0.00000
     65      50.9935      0.00000
     66      50.9935      0.00000
     67      51.1452      0.00000
     68      51.1452      0.00000
     69      51.3916      0.00000
     70      53.0901      0.00000
     71      53.8499      0.00000
     72      53.8499      0.00000
     73      54.1384      0.00000
     74      54.3410      0.00000
     75      54.3411      0.00000
     76      54.7498      0.00000
     77      55.2467      0.00000
     78      55.2470      0.00000
     79      56.5147      0.00000
     80      56.5157      0.00000

 k-point     6 :       0.0000    0.4000    0.0000
  band No.  band energies     occupation 
      1      -1.7204      2.00000
      2       0.0548      2.00000
      3       6.3480      2.00000
      4       6.3480      2.00000
      5       7.6707      2.01709
      6       7.6707      2.01709
      7       8.0075      1.47591
      8       8.0075      1.47591
      9       9.6017     -0.00000
     10       9.6017     -0.00000
     11      13.7963      0.00000
     12      14.6072      0.00000
     13      14.7247      0.00000
     14      14.7247      0.00000
     15      16.2599      0.00000
     16      16.2599      0.00000
     17      16.3554      0.00000
     18      18.2127      0.00000
     19      18.6421      0.00000
     20      19.6356      0.00000
     21      21.3251      0.00000
     22      21.3251      0.00000
     23      22.9059      0.00000
     24      22.9059      0.00000
     25      26.2007      0.00000
     26      26.2007      0.00000
     27      27.6206      0.00000
     28      27.6206      0.00000
     29      28.1171      0.00000
     30      28.1171      0.00000
     31      28.6055      0.00000
     32      30.1796      0.00000
     33      31.2922      0.00000
     34      31.2922      0.00000
     35      31.3944      0.00000
     36      32.9497      0.00000
     37      34.3127      0.00000
     38      34.3127      0.00000
     39      34.9539      0.00000
     40      34.9539      0.00000
     41      35.7958      0.00000
     42      36.7316      0.00000
     43      37.1919      0.00000
     44      37.1919      0.00000
     45      39.2472      0.00000
     46      39.7465      0.00000
     47      39.7465      0.00000
     48      41.7957      0.00000
     49      41.9341      0.00000
     50      41.9341      0.00000
     51      42.3020      0.00000
     52      42.3020      0.00000
     53      42.7985      0.00000
     54      42.7985      0.00000
     55      43.9495      0.00000
     56      43.9495      0.00000
     57      43.9843      0.00000
     58      43.9843      0.00000
     59      45.0718      0.00000
     60      45.0718      0.00000
     61      46.3019      0.00000
     62      46.9764      0.00000
     63      46.9764      0.00000
     64      47.6131      0.00000
     65      50.9935      0.00000
     66      50.9935      0.00000
     67      51.1452      0.00000
     68      51.1452      0.00000
     69      51.3916      0.00000
     70      53.0900      0.00000
     71      53.8499      0.00000
     72      53.8499      0.00000
     73      54.1384      0.00000
     74      54.3410      0.00000
     75      54.3412      0.00000
     76      54.7501      0.00000
     77      55.2468      0.00000
     78      55.2468      0.00000
     79      56.5148      0.00000
     80      56.5151      0.00000

 k-point     7 :       0.0000    0.0000    0.4000
  band No.  band energies     occupation 
      1      -1.7204      2.00000
      2       0.0548      2.00000
      3       6.3480      2.00000
      4       6.3480      2.00000
      5       7.6707      2.01709
      6       7.6707      2.01709
      7       8.0075      1.47591
      8       8.0075      1.47590
      9       9.6017     -0.00000
     10       9.6017     -0.00000
     11      13.7963      0.00000
     12      14.6072      0.00000
     13      14.7247      0.00000
     14      14.7247      0.00000
     15      16.2599      0.00000
     16      16.2599      0.00000
     17      16.3554      0.00000
     18      18.2127      0.00000
     19      18.6421      0.00000
     20      19.6356      0.00000
     21      21.3251      0.00000
     22      21.3251      0.00000
     23      22.9059      0.00000
     24      22.9059      0.00000
     25      26.2007      0.00000
     26      26.2007      0.00000
     27      27.6206      0.00000
     28      27.6206      0.00000
     29      28.1171      0.00000
     30      28.1171      0.00000
     31      28.6055      0.00000
     32      30.1796      0.00000
     33      31.2922      0.00000
     34      31.2922      0.00000
     35      31.3944      0.00000
     36      32.9497      0.00000
     37      34.3127      0.00000
     38      34.3127      0.00000
     39      34.9539      0.00000
     40      34.9539      0.00000
     41      35.7958      0.00000
     42      36.7316      0.00000
     43      37.1919      0.00000
     44      37.1919      0.00000
     45      39.2472      0.00000
     46      39.7465      0.00000
     47      39.7465      0.00000
     48      41.7957      0.00000
     49      41.9341      0.00000
     50      41.9341      0.00000
     51      42.3020      0.00000
     52      42.3020      0.00000
     53      42.7985      0.00000
     54      42.7985      0.00000
     55      43.9495      0.00000
     56      43.9495      0.00000
     57      43.9843      0.00000
     58      43.9843      0.00000
     59      45.0718      0.00000
     60      45.0718      0.00000
     61      46.3019      0.00000
     62      46.9764      0.00000
     63      46.9764      0.00000
     64      47.6131      0.00000
     65      50.9935      0.00000
     66      50.9935      0.00000
     67      51.1452      0.00000
     68      51.1452      0.00000
     69      51.3916      0.00000
     70      53.0899      0.00000
     71      53.8499      0.00000
     72      53.8499      0.00000
     73      54.1384      0.00000
     74      54.3410      0.00000
     75      54.3412      0.00000
     76      54.7497      0.00000
     77      55.2467      0.00000
     78      55.2469      0.00000
     79      56.5148      0.00000
     80      56.5153      0.00000

 k-point     8 :       0.2000    0.2000    0.0000
  band No.  band energies     occupation 
      1      -2.4371      2.00000
      2       2.8385      2.00000
      3       2.8385      2.00000
      4       5.6855      2.00000
      5       6.9888      2.00000
      6       8.0112      1.44919
      7       9.8065     -0.00000
      8       9.8065     -0.00000
      9      10.6694     -0.00000
     10      10.6694     -0.00000
     11      12.1112     -0.00000
     12      12.1112     -0.00000
     13      14.1151      0.00000
     14      15.6337      0.00000
     15      15.6691      0.00000
     16      16.7071      0.00000
     17      17.3425      0.00000
     18      17.3425      0.00000
     19      19.5052      0.00000
     20      19.5052      0.00000
     21      21.2196      0.00000
     22      21.7507      0.00000
     23      22.2755      0.00000
     24      23.4565      0.00000
     25      23.7333      0.00000
     26      24.6083      0.00000
     27      25.2077      0.00000
     28      28.9498      0.00000
     29      28.9498      0.00000
     30      29.3982      0.00000
     31      30.3960      0.00000
     32      30.6008      0.00000
     33      31.2293      0.00000
     34      31.9890      0.00000
     35      33.1403      0.00000
     36      33.1403      0.00000
     37      33.4357      0.00000
     38      33.5598      0.00000
     39      33.5598      0.00000
     40      36.0472      0.00000
     41      36.9499      0.00000
     42      37.3737      0.00000
     43      37.3737      0.00000
     44      37.5778      0.00000
     45      39.7818      0.00000
     46      39.7818      0.00000
     47      40.5058      0.00000
     48      40.5058      0.00000
     49      41.3048      0.00000
     50      42.4781      0.00000
     51      43.2141      0.00000
     52      43.2141      0.00000
     53      43.2678      0.00000
     54      43.2678      0.00000
     55      43.3098      0.00000
     56      43.7318      0.00000
     57      44.8258      0.00000
     58      45.2740      0.00000
     59      45.2740      0.00000
     60      46.5127      0.00000
     61      46.5127      0.00000
     62      47.3125      0.00000
     63      47.3125      0.00000
     64      47.4759      0.00000
     65      47.5289      0.00000
     66      50.1345      0.00000
     67      51.0427      0.00000
     68      51.2214      0.00000
     69      51.2934      0.00000
     70      51.3103      0.00000
     71      51.3103      0.00000
     72      52.9890      0.00000
     73      53.2043      0.00000
     74      53.2043      0.00000
     75      53.6364      0.00000
     76      53.6365      0.00000
     77      55.0099      0.00000
     78      55.1765      0.00000
     79      55.5317      0.00000
     80      56.2589      0.00000

 k-point     9 :       0.0000    0.2000    0.2000
  band No.  band energies     occupation 
      1      -2.4371      2.00000
      2       2.8385      2.00000
      3       2.8385      2.00000
      4       5.6855      2.00000
      5       6.9888      2.00000
      6       8.0112      1.44919
      7       9.8065     -0.00000
      8       9.8065     -0.00000
      9      10.6694     -0.00000
     10      10.6694     -0.00000
     11      12.1112     -0.00000
     12      12.1112     -0.00000
     13      14.1151      0.00000
     14      15.6337      0.00000
     15      15.6691      0.00000
     16      16.7071      0.00000
     17      17.3425      0.00000
     18      17.3425      0.00000
     19      19.5052      0.00000
     20      19.5052      0.00000
     21      21.2196      0.00000
     22      21.7507      0.00000
     23      22.2755      0.00000
     24      23.4565      0.00000
     25      23.7333      0.00000
     26      24.6083      0.00000
     27      25.2077      0.00000
     28      28.9498      0.00000
     29      28.9498      0.00000
     30      29.3982      0.00000
     31      30.3960      0.00000
     32      30.6008      0.00000
     33      31.2293      0.00000
     34      31.9890      0.00000
     35      33.1403      0.00000
     36      33.1403      0.00000
     37      33.4357      0.00000
     38      33.5598      0.00000
     39      33.5598      0.00000
     40      36.0472      0.00000
     41      36.9499      0.00000
     42      37.3737      0.00000
     43      37.3737      0.00000
     44      37.5778      0.00000
     45      39.7818      0.00000
     46      39.7818      0.00000
     47      40.5058      0.00000
     48      40.5058      0.00000
     49      41.3048      0.00000
     50      42.4781      0.00000
     51      43.2141      0.00000
     52      43.2141      0.00000
     53      43.2678      0.00000
     54      43.2678      0.00000
     55      43.3098      0.00000
     56      43.7318      0.00000
     57      44.8258      0.00000
     58      45.2740      0.00000
     59      45.2740      0.00000
     60      46.5127      0.00000
     61      46.5127      0.00000
     62      47.3125      0.00000
     63      47.3125      0.00000
     64      47.4759      0.00000
     65      47.5289      0.00000
     66      50.1345      0.00000
     67      51.0427      0.00000
     68      51.2214      0.00000
     69      51.2934      0.00000
     70      51.3103      0.00000
     71      51.3103      0.00000
     72      52.9890      0.00000
     73      53.2043      0.00000
     74      53.2043      0.00000
     75      53.6364      0.00000
     76      53.6364      0.00000
     77      55.0100      0.00000
     78      55.1765      0.00000
     79      55.5311      0.00000
     80      56.2589      0.00000

 k-point    10 :       0.2000    0.0000    0.2000
  band No.  band energies     occupation 
      1      -2.4371      2.00000
      2       2.8385      2.00000
      3       2.8385      2.00000
      4       5.6855      2.00000
      5       6.9888      2.00000
      6       8.0112      1.44919
      7       9.8065     -0.00000
      8       9.8065     -0.00000
      9      10.6694     -0.00000
     10      10.6694     -0.00000
     11      12.1112     -0.00000
     12      12.1112     -0.00000
     13      14.1151      0.00000
     14      15.6337      0.00000
     15      15.6691      0.00000
     16      16.7071      0.00000
     17      17.3425      0.00000
     18      17.3425      0.00000
     19      19.5052      0.00000
     20      19.5052      0.00000
     21      21.2196      0.00000
     22      21.7507      0.00000
     23      22.2755      0.00000
     24      23.4565      0.00000
     25      23.7333      0.00000
     26      24.6083      0.00000
     27      25.2077      0.00000
     28      28.9498      0.00000
     29      28.9498      0.00000
     30      29.3982      0.00000
     31      30.3960      0.00000
     32      30.6008      0.00000
     33      31.2293      0.00000
     34      31.9890      0.00000
     35      33.1403      0.00000
     36      33.1403      0.00000
     37      33.4357      0.00000
     38      33.5598      0.00000
     39      33.5598      0.00000
     40      36.0472      0.00000
     41      36.9499      0.00000
     42      37.3737      0.00000
     43      37.3737      0.00000
     44      37.5778      0.00000
     45      39.7818      0.00000
     46      39.7818      0.00000
     47      40.5058      0.00000
     48      40.5058      0.00000
     49      41.3048      0.00000
     50      42.4781      0.00000
     51      43.2141      0.00000
[...]
     38      30.3698      0.00000
     39      32.0905      0.00000
     40      32.0905      0.00000
     41      36.5150      0.00000
     42      36.6498      0.00000
     43      37.6375      0.00000
     44      37.6375      0.00000
     45      40.1115      0.00000
     46      40.3801      0.00000
     47      40.3802      0.00000
     48      42.5574      0.00000
     49      42.6562      0.00000
     50      43.0203      0.00000
     51      43.0203      0.00000
     52      43.1272      0.00000
     53      43.7212      0.00000
     54      44.4367      0.00000
     55      44.4367      0.00000
     56      44.6007      0.00000
     57      45.8348      0.00000
     58      47.1157      0.00000
     59      47.1158      0.00000
     60      47.7591      0.00000
     61      49.5550      0.00000
     62      49.6597      0.00000
     63      49.6598      0.00000
     64      49.7468      0.00000
     65      50.2470      0.00000
     66      50.6271      0.00000
     67      50.6271      0.00000
     68      50.9363      0.00000
     69      51.9964      0.00000
     70      53.9116      0.00000
     71      53.9117      0.00000
     72      53.9520      0.00000
     73      54.5049      0.00000
     74      54.6314      0.00000
     75      54.6314      0.00000
     76      55.3713      0.00000
     77      56.1163      0.00000
     78      56.2290      0.00000
     79      56.2290      0.00000
     80      56.4388      0.00000

 k-point    60 :       0.4000    0.4000    0.4000
  band No.  band energies     occupation 
      1       1.1112      2.00000
      2       2.8500      2.00000
      3       2.8500      2.00000
      4       2.8500      2.00000
      5       4.5871      2.00000
      6       4.5871      2.00000
      7       4.5872      2.00000
      8       6.2911      2.00000
      9      16.3347      0.00000
     10      16.3347      0.00000
     11      16.3347      0.00000
     12      17.2162      0.00000
     13      17.2162      0.00000
     14      17.2162      0.00000
     15      18.7681      0.00000
     16      18.7681      0.00000
     17      18.9325      0.00000
     18      18.9325      0.00000
     19      18.9325      0.00000
     20      20.3258      0.00000
     21      20.3258      0.00000
     22      21.8885      0.00000
     23      21.8885      0.00000
     24      21.8885      0.00000
     25      22.3965      0.00000
     26      24.2117      0.00000
     27      24.7679      0.00000
     28      24.7679      0.00000
     29      24.7679      0.00000
     30      25.5189      0.00000
     31      25.5189      0.00000
     32      25.5189      0.00000
     33      30.4126      0.00000
     34      30.4126      0.00000
     35      30.4127      0.00000
     36      30.8790      0.00000
     37      30.8790      0.00000
     38      32.7235      0.00000
     39      32.7235      0.00000
     40      32.7235      0.00000
     41      37.5558      0.00000
     42      38.9771      0.00000
     43      38.9771      0.00000
     44      38.9771      0.00000
     45      38.9870      0.00000
     46      38.9870      0.00000
     47      38.9870      0.00000
     48      40.4345      0.00000
     49      40.4345      0.00000
     50      40.4345      0.00000
     51      40.7483      0.00000
     52      40.7483      0.00000
     53      46.3197      0.00000
     54      46.8227      0.00000
     55      46.8227      0.00000
     56      46.8227      0.00000
     57      47.8644      0.00000
     58      47.8644      0.00000
     59      47.9837      0.00000
     60      49.3188      0.00000
     61      49.3188      0.00000
     62      49.3189      0.00000
     63      49.8118      0.00000
     64      49.8118      0.00000
     65      49.8119      0.00000
     66      50.8021      0.00000
     67      50.8021      0.00000
     68      50.8021      0.00000
     69      53.1859      0.00000
     70      53.9004      0.00000
     71      53.9004      0.00000
     72      53.9004      0.00000
     73      55.0929      0.00000
     74      55.0929      0.00000
     75      55.0930      0.00000
     76      56.3440      0.00000
     77      56.4221      0.00000
     78      56.4221      0.00000
     79      56.4222      0.00000
     80      56.7562      0.00000

 k-point    61 :      -0.4000    0.4000    0.4000
  band No.  band energies     occupation 
      1       1.1112      2.00000
      2       2.8500      2.00000
      3       2.8500      2.00000
      4       2.8500      2.00000
      5       4.5871      2.00000
      6       4.5871      2.00000
      7       4.5872      2.00000
      8       6.2911      2.00000
      9      16.3347      0.00000
     10      16.3347      0.00000
     11      16.3347      0.00000
     12      17.2162      0.00000
     13      17.2162      0.00000
     14      17.2162      0.00000
     15      18.7681      0.00000
     16      18.7681      0.00000
     17      18.9325      0.00000
     18      18.9325      0.00000
     19      18.9326      0.00000
     20      20.3258      0.00000
     21      20.3258      0.00000
     22      21.8885      0.00000
     23      21.8885      0.00000
     24      21.8885      0.00000
     25      22.3965      0.00000
     26      24.2117      0.00000
     27      24.7679      0.00000
     28      24.7679      0.00000
     29      24.7679      0.00000
     30      25.5189      0.00000
     31      25.5189      0.00000
     32      25.5190      0.00000
     33      30.4126      0.00000
     34      30.4126      0.00000
     35      30.4127      0.00000
     36      30.8790      0.00000
     37      30.8790      0.00000
     38      32.7235      0.00000
     39      32.7235      0.00000
     40      32.7235      0.00000
     41      37.5558      0.00000
     42      38.9771      0.00000
     43      38.9771      0.00000
     44      38.9771      0.00000
     45      38.9870      0.00000
     46      38.9870      0.00000
     47      38.9870      0.00000
     48      40.4345      0.00000
     49      40.4345      0.00000
     50      40.4345      0.00000
     51      40.7483      0.00000
     52      40.7483      0.00000
     53      46.3197      0.00000
     54      46.8227      0.00000
     55      46.8227      0.00000
     56      46.8227      0.00000
     57      47.8644      0.00000
     58      47.8644      0.00000
     59      47.9837      0.00000
     60      49.3188      0.00000
     61      49.3188      0.00000
     62      49.3189      0.00000
     63      49.8118      0.00000
     64      49.8118      0.00000
     65      49.8119      0.00000
     66      50.8021      0.00000
     67      50.8021      0.00000
     68      50.8021      0.00000
     69      53.1859      0.00000
     70      53.9004      0.00000
     71      53.9004      0.00000
     72      53.9004      0.00000
     73      55.0929      0.00000
     74      55.0929      0.00000
     75      55.0930      0.00000
     76      56.3440      0.00000
     77      56.4221      0.00000
     78      56.4222      0.00000
     79      56.4222      0.00000
     80      56.7562      0.00000

 k-point    62 :      -0.4000   -0.4000    0.4000
  band No.  band energies     occupation 
      1       1.1112      2.00000
      2       2.8500      2.00000
      3       2.8500      2.00000
      4       2.8500      2.00000
      5       4.5871      2.00000
      6       4.5871      2.00000
      7       4.5872      2.00000
      8       6.2911      2.00000
      9      16.3347      0.00000
     10      16.3347      0.00000
     11      16.3347      0.00000
     12      17.2162      0.00000
     13      17.2162      0.00000
     14      17.2162      0.00000
     15      18.7681      0.00000
     16      18.7681      0.00000
     17      18.9325      0.00000
     18      18.9325      0.00000
     19      18.9326      0.00000
     20      20.3258      0.00000
     21      20.3258      0.00000
     22      21.8885      0.00000
     23      21.8885      0.00000
     24      21.8885      0.00000
     25      22.3965      0.00000
     26      24.2117      0.00000
     27      24.7679      0.00000
     28      24.7679      0.00000
     29      24.7679      0.00000
     30      25.5189      0.00000
     31      25.5189      0.00000
     32      25.5190      0.00000
     33      30.4126      0.00000
     34      30.4126      0.00000
     35      30.4127      0.00000
     36      30.8790      0.00000
     37      30.8790      0.00000
     38      32.7235      0.00000
     39      32.7235      0.00000
     40      32.7235      0.00000
     41      37.5558      0.00000
     42      38.9771      0.00000
     43      38.9771      0.00000
     44      38.9771      0.00000
     45      38.9870      0.00000
     46      38.9870      0.00000
     47      38.9870      0.00000
     48      40.4345      0.00000
     49      40.4345      0.00000
     50      40.4345      0.00000
     51      40.7483      0.00000
     52      40.7483      0.00000
     53      46.3197      0.00000
     54      46.8227      0.00000
     55      46.8227      0.00000
     56      46.8227      0.00000
     57      47.8644      0.00000
     58      47.8644      0.00000
     59      47.9837      0.00000
     60      49.3188      0.00000
     61      49.3188      0.00000
     62      49.3189      0.00000
     63      49.8118      0.00000
     64      49.8118      0.00000
     65      49.8119      0.00000
     66      50.8021      0.00000
     67      50.8021      0.00000
     68      50.8021      0.00000
     69      53.1859      0.00000
     70      53.9004      0.00000
     71      53.9004      0.00000
     72      53.9004      0.00000
     73      55.0929      0.00000
     74      55.0929      0.00000
     75      55.0930      0.00000
     76      56.3440      0.00000
     77      56.4221      0.00000
     78      56.4222      0.00000
     79      56.4222      0.00000
     80      56.7561      0.00000

 k-point    63 :       0.4000   -0.4000    0.4000
  band No.  band energies     occupation 
      1       1.1112      2.00000
      2       2.8500      2.00000
      3       2.8500      2.00000
      4       2.8500      2.00000
      5       4.5871      2.00000
      6       4.5871      2.00000
      7       4.5872      2.00000
      8       6.2911      2.00000
      9      16.3347      0.00000
     10      16.3347      0.00000
     11      16.3347      0.00000
     12      17.2162      0.00000
     13      17.2162      0.00000
     14      17.2162      0.00000
     15      18.7681      0.00000
     16      18.7681      0.00000
     17      18.9325      0.00000
     18      18.9325      0.00000
     19      18.9326      0.00000
     20      20.3258      0.00000
     21      20.3258      0.00000
     22      21.8885      0.00000
     23      21.8885      0.00000
     24      21.8885      0.00000
     25      22.3965      0.00000
     26      24.2117      0.00000
     27      24.7679      0.00000
     28      24.7679      0.00000
     29      24.7679      0.00000
     30      25.5189      0.00000
     31      25.5189      0.00000
     32      25.5190      0.00000
     33      30.4126      0.00000
     34      30.4126      0.00000
     35      30.4127      0.00000
     36      30.8790      0.00000
     37      30.8790      0.00000
     38      32.7235      0.00000
     39      32.7235      0.00000
     40      32.7235      0.00000
     41      37.5558      0.00000
     42      38.9771      0.00000
     43      38.9771      0.00000
     44      38.9771      0.00000
     45      38.9870      0.00000
     46      38.9870      0.00000
     47      38.9870      0.00000
     48      40.4345      0.00000
     49      40.4345      0.00000
     50      40.4345      0.00000
     51      40.7483      0.00000
     52      40.7483      0.00000
     53      46.3197      0.00000
     54      46.8227      0.00000
     55      46.8227      0.00000
     56      46.8227      0.00000
     57      47.8644      0.00000
     58      47.8644      0.00000
     59      47.9837      0.00000
     60      49.3188      0.00000
     61      49.3188      0.00000
     62      49.3189      0.00000
     63      49.8118      0.00000
     64      49.8118      0.00000
     65      49.8119      0.00000
     66      50.8021      0.00000
     67      50.8021      0.00000
     68      50.8021      0.00000
     69      53.1859      0.00000
     70      53.9004      0.00000
     71      53.9004      0.00000
     72      53.9004      0.00000
     73      55.0929      0.00000
     74      55.0929      0.00000
     75      55.0930      0.00000
     76      56.3440      0.00000
     77      56.4221      0.00000
     78      56.4221      0.00000
     79      56.4222      0.00000
     80      56.7562      0.00000


--------------------------------------------------------------------------------------------------------


 soft charge-density along one line, spin component           1
         0         1         2         3         4         5         6         7         8         9
 total charge-density along one line
 
 pseudopotential strength for first ion, spin component:           1
  8.446  14.395   0.000  -0.000   0.000   0.000  -0.000   0.000
 14.395  24.534   0.000  -0.000   0.000   0.000  -0.000   0.000
  0.000   0.000   1.988  -0.000  -0.000   5.731  -0.000  -0.000
 -0.000  -0.000  -0.000   1.988  -0.000  -0.000   5.731  -0.000
  0.000   0.000  -0.000  -0.000   1.988  -0.000  -0.000   5.731
  0.000   0.000   5.731  -0.000  -0.000  16.437  -0.000  -0.000
 -0.000  -0.000  -0.000   5.731  -0.000  -0.000  16.437  -0.000
  0.000   0.000  -0.000  -0.000   5.731  -0.000  -0.000  16.437
 total augmentation occupancy for first ion, spin component:           1
  3.313  -0.806  -0.000   0.000  -0.000   0.000  -0.000   0.000
 -0.806   0.267   0.000  -0.000   0.000  -0.000   0.000  -0.000
 -0.000   0.000   1.096   0.000  -0.000  -0.072  -0.000   0.000
  0.000  -0.000   0.000   1.096   0.000   0.000  -0.072   0.000
 -0.000   0.000  -0.000   0.000   1.096   0.000  -0.000  -0.072
  0.000  -0.000  -0.072   0.000   0.000   0.005   0.000  -0.000
 -0.000   0.000  -0.000  -0.072  -0.000   0.000   0.005  -0.000
  0.000  -0.000   0.000   0.000  -0.072  -0.000  -0.000   0.005


------------------------ aborting loop because EDIFF is reached ----------------------------------------


    CHARGE:  cpu time      0.0222: real time      0.0222
    FORLOC:  cpu time      0.0001: real time      0.0001
    FORNL :  cpu time      0.0164: real time      0.0164
    FORCOR:  cpu time      0.0042: real time      0.0042
    FORHAR:  cpu time      0.0006: real time      0.0006
    MIXING:  cpu time      0.0001: real time      0.0001
    OFIELD:  cpu time      0.0000: real time      0.0000

 VOLUME and BASIS-vectors are now :
 -----------------------------------------------------------------------------
  energy-cutoff  :      400.00
  volume of cell :       66.43
      direct lattice vectors                 reciprocal lattice vectors
     4.050000000  0.000000000  0.000000000     0.246913580  0.000000000  0.000000000
     0.000000000  4.050000000  0.000000000     0.000000000  0.246913580  0.000000000
     0.000000000  0.000000000  4.050000000     0.000000000  0.000000000  0.246913580

  length of vectors
     4.050000000  4.050000000  4.050000000     0.246913580  0.246913580  0.246913580


 FORCES acting on ions
    electron-ion (+dipol)            ewald-force                    non-local-force                 convergence-correction
 -----------------------------------------------------------------------------------------------
   -.330E-03 -.164E-02 -.880E-05   0.275E-03 0.132E-02 0.135E-04   0.839E-04 0.477E-03 -.694E-05   0.946E-06 0.387E-05 0.146E-06
   -.401E-03 0.154E-02 -.324E-03   0.324E-03 -.126E-02 0.216E-03   0.117E-03 -.432E-03 0.162E-03   0.936E-06 -.388E-05 -.161E-06
   0.417E-03 -.137E-02 0.440E-03   -.335E-03 0.114E-02 -.311E-03   -.124E-03 0.349E-03 -.193E-03   -.943E-06 0.388E-05 -.123E-06
   0.314E-03 0.146E-02 -.107E-03   -.264E-03 -.120E-02 0.812E-04   -.765E-04 -.394E-03 0.387E-04   -.939E-06 -.388E-05 0.140E-06
 -----------------------------------------------------------------------------------------------
   0.564E-07 -.205E-07 0.387E-07   0.374E-17 -.197E-15 0.568E-16   -.948E-07 0.377E-07 -.839E-07   0.187E-09 -.179E-08 0.181E-08
 
 
 POSITION                                       TOTAL-FORCE (eV/Angst)
 -----------------------------------------------------------------------------------
      4.05000      4.04998      0.00000         0.000030      0.000165     -0.000002
      4.04999      2.02502      2.02498         0.000041     -0.000150      0.000053
      2.02501      4.04999      2.02502        -0.000043      0.000123     -0.000065
      2.02500      2.02502      4.05000        -0.000027     -0.000138      0.000013
 -----------------------------------------------------------------------------------
    total drift:                               -0.000000      0.000000     -0.000000


--------------------------------------------------------------------------------------------------------



  FREE ENERGIE OF THE ION-ELECTRON SYSTEM (eV)
  ---------------------------------------------------
  free  energy   TOTEN  =       -14.98833653 eV

  energy  without entropy=      -14.98156515  energy(sigma->0) =      -14.98607940
 
 d Force =-0.1362309E-08[-0.143E-08,-0.130E-08]  d Energy =-0.5941672E-08 0.458E-08
 d Force =-0.1057087E-07[-0.112E-07,-0.999E-08]  d Ewald  =-0.1057094E-07 0.568E-13


--------------------------------------------------------------------------------------------------------


    POTLOK:  cpu time      0.0054: real time      0.0054


--------------------------------------------------------------------------------------------------------


           RANDOM_SEED =         605749469                0                0
   IONSTEP:  cpu time      0.0000: real time      0.0000

  ENERGY OF THE ELECTRON-ION-THERMOSTAT SYSTEM (eV)
  ---------------------------------------------------
% ion-electron   TOTEN  =       -14.988337  see above
  kinetic energy EKIN   =         0.000000
  kin. lattice  EKIN_LAT=         0.000000  (temperature    0.00 K)
  nose potential ES     =         0.000000
  nose kinetic   EPS    =         0.000000
  ---------------------------------------------------
  total energy   ETOTAL =       -14.988336 eV

  maximum distance moved by ions :      0.68E-06


 mean value of Nose-termostat <S>:     1.000 mean value of <T> :     0.000
 mean temperature <T/S>/<1/S>  :     0.000

 Prediction of Wavefunctions ALPHA= 2.072 BETA=-1.073
    WAVPRE:  cpu time      0.4910: real time      0.4979
    FEWALD:  cpu time      0.0001: real time      0.0001
    ORTHCH:  cpu time      0.0594: real time      0.0594
    POTLOK:  cpu time      0.0051: real time      0.0051
    EDDIAG:  cpu time      0.3997: real time      0.3997
     LOOP+:  cpu time     21.3009: real time     21.3130
    4ORBIT:  cpu time      0.0000: real time      0.0000

 total amount of memory used by VASP MPI-rank0    40623. kBytes
=======================================================================

   base      :      30000. kBytes
   nonl-proj :       5242. kBytes
   fftplans  :        215. kBytes
   grid      :       1044. kBytes
   one-center:         12. kBytes
   wavefun   :       4110. kBytes
 
  
  
 General timing and accounting informations for this job:
 ========================================================
  
                  Total CPU time used (sec):      187.526
                            User time (sec):      187.107
                          System time (sec):        0.420
                         Elapsed time (sec):      188.611
  
                   Maximum memory used (kb):      350740.
                   Average memory used (kb):          N/A
  
                          Minor page faults:        36850
                          Major page faults:        39322
                 Voluntary context switches:         1200
